20
	Energy:       6.5566875
C         -2.70736        1.37816        0.02690
S         -0.89919        1.34470        0.26586
H         -3.17297        0.70293        0.75221
H         -2.95266        1.03381       -0.98430
C         -3.22230        2.80680        0.22811
N         -0.84762       -0.31352        0.00170
O          0.30529       -0.74095        0.11305
H         -3.01704        3.13432        1.25586
C         -4.73253        2.96039       -0.06096
H         -2.66718        3.47863       -0.43882
C         -5.59011        2.06900        0.83988
H         -4.90266        2.66715       -1.10535
C         -5.17852        4.42195        0.09806
H         -5.41106        1.00846        0.63928
H         -6.65641        2.25119        0.66712
H         -5.38197        2.25825        1.89831
H         -4.98641        4.79781        1.10925
H         -6.25287        4.51349       -0.09313
O         -4.51443        5.25878       -0.83860
H         -3.64265        5.48388       -0.47183
